ITEM: TIMESTEP
0.000000000000000
ITEM: NUMBER OF ATOMS
256
ITEM: BOX BOUNDS pp pp pp
0.000000000000000 5.975206328742890
0.000000000000000 5.975206328742890
0.000000000000000 5.975206328742890
ITEM: ATOMS id type mol x y z radius
1 1 1 0.619548092277984 2.100935496871414 1.184066725560252 0.500000000000000
2 1 2 3.430897988212490 4.972514016116559 3.722972032740117 0.500000000000000
3 1 3 0.537848006725345 2.756292852080791 0.210307020762779 0.500000000000000
4 1 4 0.306946109979968 4.753495765816920 0.474587443896751 0.500000000000000
5 1 5 2.873799469437719 4.126642220927951 4.156979331181610 0.500000000000000
6 1 6 4.526225809945337 0.073754292672644 2.512631768932712 0.500000000000000
7 1 7 4.584300030817019 2.793873063942016 5.265215366739288 0.500000000000000
8 1 8 4.567231281920686 5.924140988290073 5.293646980674303 0.500000000000000
9 1 9 2.278803778924464 2.835360113828661 1.360262197337409 0.500000000000000
10 1 10 1.184082191162969 5.399804402608861 0.161057827215950 0.500000000000000
11 1 11 2.871653597364626 1.890996436135167 3.344336176326729 0.500000000000000
12 1 12 0.843106854331488 0.641961811585683 2.634779774886567 0.500000000000000
13 1 13 5.028228012528468 2.926217071180304 0.224769470510385 0.500000000000000
14 1 14 4.044090658400022 0.608566314519580 4.511399689557676 0.500000000000000
15 1 15 3.784148309928983 4.378020600126297 5.801162640211808 0.500000000000000
16 1 16 2.263002527110739 3.390607557584145 4.686846659364543 0.500000000000000
17 1 17 4.244736486090953 3.002424533213500 2.230659849054416 0.500000000000000
18 1 18 1.453206754746964 2.940368263824588 5.591499112503182 0.500000000000000
19 1 19 2.252718125464692 4.967812638582970 5.601326630305803 0.500000000000000
20 1 20 4.371268155310953 1.085433413789607 1.255224603668701 0.500000000000000
21 1 21 1.943018450165929 2.837229377818221 3.866517236127294 0.500000000000000
22 1 22 1.908864338388979 1.749944363265822 3.850901082959738 0.500000000000000
23 1 23 4.202638752830556 2.251892644152988 0.501215856922167 0.500000000000000
24 1 24 4.737041323610643 0.147066177765887 0.882036874043751 0.500000000000000
25 1 25 2.449569859698709 3.942054544791564 3.030719294589446 0.500000000000000
26 1 26 0.154305269272734 0.955132755797265 3.578668725160196 0.500000000000000
27 1 27 3.959794526434811 4.469392936408283 2.899543878680540 0.500000000000000
28 1 28 1.668739017465198 5.532912217813930 1.145109784011648 0.500000000000000
29 1 29 2.264743753653580 5.769970797433999 0.317289897880208 0.500000000000000
30 1 30 2.738691520333898 0.477689119957482 1.968822878059115 0.500000000000000
31 1 31 2.369042216822418 5.469922040705809 1.968853142911929 0.500000000000000
32 1 32 4.396540373496665 5.032033823557550 2.099028728103360 0.500000000000000
33 1 33 5.160581100958250 3.420295745638773 3.637539375947501 0.500000000000000
34 1 34 4.685377567675017 3.805871882710564 5.621501512807475 0.500000000000000
35 1 35 1.574585314149614 2.980650257117841 2.903320665709081 0.500000000000000
36 1 36 5.234717864683224 5.058819548346621 4.441067818307171 0.500000000000000
37 1 37 3.404723652246797 5.861290256384354 2.973130344574658 0.500000000000000
38 1 38 0.223832196334679 3.175876012073366 3.861076865925135 0.500000000000000
39 1 39 5.478513249885829 5.395575811326594 0.687333048174053 0.500000000000000
40 1 40 0.534775487669634 3.301697811090391 2.866889235399770 0.500000000000000
41 1 41 2.784608856728681 4.921526092514488 1.143241473447021 0.500000000000000
42 1 42 1.004350469122745 3.811386140591605 0.340956082477089 0.500000000000000
43 1 43 4.218655621037234 1.655996640516690 4.216014983536276 0.500000000000000
44 1 44 4.455831140567438 5.181781540218595 0.213140219175070 0.500000000000000
45 1 45 3.774397000893471 1.361308208094222 2.182027656884511 0.500000000000000
46 1 46 5.153480809569095 2.043516394051266 0.981682485896901 0.500000000000000
47 1 47 5.082539427034851 1.816687926190206 5.816002819725643 0.500000000000000
48 1 48 0.226659287399614 5.103931571028914 2.136124670923295 0.500000000000000
49 1 49 1.116345406954188 0.519314678722945 1.623781128811729 0.500000000000000
50 1 50 0.894697676282043 4.192365847467888 4.589260801381457 0.500000000000000
51 1 51 3.954029232974862 4.052562501633163 3.927896013001157 0.500000000000000
52 1 52 1.647742551081034 0.778810543358430 3.511194170270560 0.500000000000000
53 1 53 2.820728324724872 4.205865421230121 0.312691560491802 0.500000000000000
54 1 54 4.627475889542764 2.950855720890207 1.233599485446713 0.500000000000000
55 1 55 3.053623650623893 3.407503931392014 2.296852610595702 0.500000000000000
56 1 56 2.362761729432188 2.503326023425211 2.367707149612993 0.500000000000000
57 1 57 0.865413557143203 1.528709173292497 4.183918944440831 0.500000000000000
58 1 58 3.916315291220507 0.086766145411053 0.210189129446796 0.500000000000000
59 1 59 2.781734506548700 2.943065899951727 3.236449501893517 0.500000000000000
60 1 60 0.526996673285632 2.305034121951460 2.607962654651675 0.500000000000000
61 1 61 5.672614040406534 4.210915438326975 5.228029005699799 0.500000000000000
62 1 62 5.264566965038869 5.164939666290676 2.762592516601441 0.500000000000000
63 1 63 0.518203702678594 4.102804737215994 2.187026371567447 0.500000000000000
64 1 64 4.792201517486149 4.019939256005718 4.566997820079029 0.500000000000000
65 1 65 5.569558633117168 0.526819425554315 5.202478964299570 0.500000000000000
66 1 66 4.360660240355207 5.380073068222360 3.313806628581596 0.500000000000000
67 1 67 3.260214127950829 0.977049011506064 3.878806795611921 0.500000000000000
68 1 68 5.046680341187083 1.538676676862669 1.937301423103373 0.500000000000000
69 1 69 2.441956067631239 0.071527056404629 5.227956134834322 0.500000000000000
70 1 70 5.384812440683454 1.021375183834653 0.842313269430902 0.500000000000000
71 1 71 3.052898029210011 3.122912212231315 0.617109452365734 0.500000000000000
72 1 72 4.450883543725285 3.978212147510296 1.726284875441422 0.500000000000000
73 1 73 5.810056114967985 0.255117340279367 0.208477827171930 0.500000000000000
74 1 74 2.358787524085102 4.853740749817200 3.654322423687223 0.500000000000000
75 1 75 0.851104766791943 0.159050910125842 3.684242576641942 0.500000000000000
76 1 76 0.771928478131753 4.518361526580625 5.560885474217407 0.500000000000000
77 1 77 1.831894391694084 1.900752214881077 5.594830161717330 0.500000000000000
78 1 78 4.386191396256232 3.069979945155560 4.237190523948808 0.500000000000000
79 1 79 1.291488633347091 2.895780898771025 0.896173410225696 0.500000000000000
80 1 80 2.844358820889360 4.133017628314357 5.231403864583592 0.500000000000000
81 1 81 5.934447235550366 5.826824761896911 4.035887671268921 0.500000000000000
82 1 82 1.935651768445442 4.469618237317083 4.645128230827852 0.500000000000000
83 1 83 3.796348224668300 0.382065432286052 1.804757254404031 0.500000000000000
84 1 84 4.211381188114120 2.090005579883738 1.594255632989813 0.500000000000000
85 1 85 1.582412442134020 0.140249454473345 4.455583401887559 0.500000000000000
86 1 86 5.277901287462367 4.510075680864285 0.169096566944094 0.500000000000000
87 1 87 4.173657013149011 0.442523357188447 3.504040340028339 0.500000000000000
88 1 88 0.179037245231247 0.146816612681349 1.874066100214272 0.500000000000000
89 1 89 4.041939680498963 1.791474647526778 5.496266835418381 0.500000000000000
90 1 90 0.467393563818379 0.825450037311886 0.814830102985333 0.500000000000000
91 1 91 0.104143265065697 1.257378952797057 1.701173531863549 0.500000000000000
92 1 92 3.641001602944872 4.650658633509382 4.764666293041964 0.500000000000000
93 1 93 5.762841043822214 2.295908464975222 1.859994350036777 0.500000000000000
94 1 94 1.380025198269531 2.606847941529915 1.923521786846284 0.500000000000000
95 1 95 1.494071496507571 2.247594055757230 4.673607728134163 0.500000000000000
96 1 96 4.519407977714168 2.110315778606334 2.670825012381862 0.500000000000000
97 1 97 4.993117139746978 0.177676595775530 4.343578481718009 0.500000000000000
98 1 98 1.404110497559028 0.295603020426218 5.547948962827912 0.500000000000000
99 1 99 4.919148828916502 2.315039027596457 3.625185496610856 0.500000000000000
100 1 100 5.962245876704655 2.051701794276217 3.753016879003180 0.500000000000000
101 1 101 5.960333565094240 4.928157995775869 3.542770756691684 0.500000000000000
102 1 102 1.340680612942777 5.269996689675880 5.043319677583440 0.500000000000000
103 1 103 1.676141152499829 1.964674325187252 1.108654250958774 0.500000000000000
104 1 104 2.971350229933387 0.584609080560746 0.204894216558060 0.500000000000000
105 1 105 0.459828791459027 3.105370506731893 1.769003772307801 0.500000000000000
106 1 106 3.140956004902377 2.005599809372125 0.479693657201227 0.500000000000000
107 1 107 5.130074123062261 1.201461298024776 3.885774074218658 0.500000000000000
108 1 108 5.744091481364716 4.059810245730467 2.959881267735589 0.500000000000000
109 1 109 5.175722664194820 0.516286563286435 1.757315181017355 0.500000000000000
110 1 110 0.452321372064956 5.824714963213342 5.403893533461753 0.500000000000000
111 1 111 3.739142946244808 4.393604154495457 0.902903932900277 0.500000000000000
112 1 112 2.004435148567125 1.070240887489110 1.488650504755167 0.500000000000000
113 1 113 3.307630852683762 5.930537960343696 4.154856882309065 0.500000000000000
114 1 114 0.180103041825217 5.811864937992607 2.932340512237074 0.500000000000000
115 1 115 4.741552070229515 3.776981586838060 2.729809794522982 0.500000000000000
116 1 116 1.737286588126528 3.879764243798352 3.814216267194963 0.500000000000000
117 1 117 3.280267382097543 3.182723394851687 4.132092740592996 0.500000000000000
118 1 118 3.751916237176503 3.415907247203984 3.124437119913720 0.500000000000000
119 1 119 5.930922152382860 3.665752575673678 0.212939398409173 0.500000000000000
120 1 120 0.695365439535913 4.118594273581245 3.564521080984117 0.500000000000000
121 1 121 5.468328105218907 3.191875687747297 4.664630895698027 0.500000000000000
122 1 122 2.690256500677936 3.867336112236123 1.346958070994411 0.500000000000000
123 1 123 2.008525121958901 3.544321046349899 2.101707977712862 0.500000000000000
124 1 124 3.494467946261955 5.694484839054840 5.201634412083038 0.500000000000000
125 1 125 1.712497201725411 5.608990636709005 3.462275234993359 0.500000000000000
126 1 126 5.484559017375652 5.346746909315892 5.566620451600770 0.500000000000000
127 1 127 1.211513071826401 3.792252071581041 1.412394994520394 0.500000000000000
128 1 128 0.466642545960363 0.964991396321352 5.651633614164435 0.500000000000000
129 1 129 2.025867593465647 3.550647566731770 0.566195388616102 0.500000000000000
130 1 130 0.382843967718997 2.461670796304653 4.635054434479355 0.500000000000000
131 1 131 1.086619662575863 1.580928192965888 2.025973107718470 0.500000000000000
132 1 132 1.790419060514153 4.599201226867251 0.582868121568642 0.500000000000000
133 1 133 5.308763572342992 5.471166197774846 1.709065713431796 0.500000000000000
134 1 134 5.372371384467318 3.366114767864673 1.873445526721567 0.500000000000000
135 1 135 3.227455419357616 5.236117298769888 0.201311559378501 0.500000000000000
136 1 136 3.938630571766892 5.445189670367929 1.109687335183404 0.500000000000000
137 1 137 3.692550975084078 0.761966777281813 5.438994666985217 0.500000000000000
138 1 138 0.988508375423601 2.455774966569982 3.633785481637295 0.500000000000000
139 1 139 4.596906652867368 4.816623465597452 5.234021103719893 0.500000000000000
140 1 140 2.680581977947694 2.318392140059932 4.395626207835836 0.500000000000000
141 1 141 5.766444025995710 2.905758394621403 0.971670099710984 0.500000000000000
142 1 142 5.395137786850733 4.429502110317570 1.965077498710450 0.500000000000000
143 1 143 5.226181419881663 0.210424422962003 3.310600212458416 0.500000000000000
144 1 144 3.022794671133970 5.959484445933906 1.082369114794665 0.500000000000000
145 1 145 0.785355034834875 1.994775753018276 5.476054001118763 0.500000000000000
146 1 146 3.010377865255065 0.944607973255321 2.846460287448288 0.500000000000000
147 1 147 3.839134514109240 2.463705010121817 3.549538665795718 0.500000000000000
148 1 148 1.903440257342880 0.221253505369176 2.608221661848065 0.500000000000000
149 1 149 5.382579826143068 2.833520074174467 2.771348638120781 0.500000000000000
150 1 150 2.963913138556375 4.833874190431657 2.763667033505511 0.500000000000000
151 1 151 2.349965537343642 0.893306100467604 4.371002121468835 0.500000000000000
152 1 152 2.564061988890474 3.206103732436597 5.666266238493423 0.500000000000000
153 1 153 3.269893402787006 1.460945723985049 4.790548501831056 0.500000000000000
154 1 154 4.070393638420096 3.473036273180435 0.438460724998387 0.500000000000000
155 1 155 3.431543091868038 4.379982980266187 1.918881785203732 0.500000000000000
156 1 156 1.910053445032317 4.550682857465975 1.677308091250068 0.500000000000000
157 1 157 2.552486792361307 0.242562448887707 3.494923978969831 0.500000000000000
158 1 158 2.759638304459571 1.598293754860824 2.022637733390490 0.500000000000000
159 1 159 3.610532705117829 2.786675971615459 5.735558220783720 0.500000000000000
160 1 160 0.447820814573174 3.410632073484218 5.264483223827391 0.500000000000000
161 1 161 1.004816428968390 5.078904394535282 4.012941128739100 0.500000000000000
162 1 162 5.748843833164365 0.790687730200654 2.602301993647971 0.500000000000000
163 1 163 4.226131469664292 5.431399728729759 4.368206108092176 0.500000000000000
164 1 164 3.651387719918791 3.389014130504003 1.433412681432767 0.500000000000000
165 1 165 2.266858996588301 1.346655741937223 0.459306063449599 0.500000000000000
166 1 166 4.759370924965073 1.070825471380655 2.868082823292005 0.500000000000000
167 1 167 5.569601928049793 1.789786004078505 2.830215519608777 0.500000000000000
168 1 168 2.501482706505384 1.112734320117552 5.390373236421048 0.500000000000000
169 1 169 3.767492910060091 3.575137463409157 5.021365375431716 0.500000000000000
170 1 170 1.383094126076987 4.018971024002838 2.801054214826590 0.500000000000000
171 1 171 0.248486750871496 5.024093775756802 4.750303910522844 0.500000000000000
172 1 172 0.062749702101045 1.757389510891528 0.346166909038944 0.500000000000000
173 1 173 5.803283527382628 4.120770043202405 4.188696811804428 0.500000000000000
174 1 174 3.216060814385671 2.396035392770942 1.476808308896586 0.500000000000000
175 1 175 2.014585038813682 1.511547116051062 2.777679642344424 0.500000000000000
176 1 176 5.895466343923936 1.426324330405215 4.658308988765959 0.500000000000000
177 1 177 5.080878088053071 3.791031418119390 0.872697778611467 0.500000000000000
178 1 178 2.198466358011963 2.491448884063232 0.369945075280465 0.500000000000000
179 1 179 3.700364607127619 2.428296124410138 4.721503266875089 0.500000000000000
180 1 180 1.156595181546205 3.208448077461037 4.465070181371449 0.500000000000000
181 1 181 1.475010437482055 1.156759723853349 4.949034698339592 0.500000000000000
182 1 182 3.105293705061414 1.101280681902712 1.157510375856531 0.500000000000000
183 1 183 3.404905279356953 5.427102832853048 2.008266520367607 0.500000000000000
184 1 184 4.767305742768995 4.765286907849596 1.121477828479462 0.500000000000000
185 1 185 0.571023009486633 0.591012206949226 4.633974663799137 0.500000000000000
186 1 186 1.906740682389207 4.898778219680016 2.687716336215524 0.500000000000000
187 1 187 4.806337902199685 1.188224187526387 4.970771528797441 0.500000000000000
188 1 188 1.168535785197066 1.449817153699859 0.326433139534168 0.500000000000000
189 1 189 3.835915064111564 1.208049771476616 0.390137264909178 0.500000000000000
190 1 190 4.746415790088153 0.769890362928380 5.964780191787851 0.500000000000000
191 1 191 3.442864081779972 2.353863354978329 2.541034921640965 0.500000000000000
192 1 192 5.150697499520170 2.157675378419012 4.647681363614792 0.500000000000000
193 1 193 1.221884585416193 5.542685930825650 2.091075652078072 0.500000000000000
194 1 194 2.703871440102494 5.182915105739561 4.619056914914095 0.500000000000000
195 1 195 2.830662963762312 2.169436620591412 5.434654598615300 0.500000000000000
196 1 196 4.915810027343251 4.494952935708174 3.567868616824556 0.500000000000000
197 1 197 1.514374555093839 0.501991364065856 0.644110830371976 0.500000000000000
198 1 198 0.877513293919098 4.980224000466936 2.952135108431751 0.500000000000000
199 1 199 1.771391317680554 3.981897677275818 5.569560836444652 0.500000000000000
200 1 200 0.518833998768459 5.732381127005929 0.948003408512677 0.500000000000000
201 1 201 0.997594907930641 1.527851238835866 3.145008811128791 0.500000000000000
202 1 202 0.889058779579907 4.798181585045020 1.354664123406331 0.500000000000000
203 1 203 0.093946387515037 4.023538819064574 1.224034824630094 0.500000000000000
204 1 204 3.868861632755544 1.472328464050462 3.220273911598357 0.500000000000000
205 1 205 5.743872280915033 2.573390207573174 5.496077897073652 0.500000000000000
206 2 206 3.254209347425797 4.160622104930119 3.342355759175247 0.400000000000000
207 2 207 0.370442170437630 1.428392427815991 2.536598775459574 0.400000000000000
208 2 208 1.096214456218335 5.831924533701627 2.896373408466496 0.400000000000000
209 2 209 4.927413773753522 2.504205223311673 1.969158679432668 0.400000000000000
210 2 210 5.679063367138642 5.734098356674495 4.834516069663429 0.400000000000000
211 2 211 2.582814433318220 4.239414622630510 2.190698803646565 0.400000000000000
212 2 212 2.122125524418996 2.314004813794144 3.194750407038178 0.400000000000000
213 2 213 5.716419160642776 0.654437667964105 4.308665694735399 0.400000000000000
214 2 214 1.927018148196446 0.202482719078155 1.699535534910506 0.400000000000000
215 2 215 2.149872924859998 2.620681864414386 5.119415807661049 0.400000000000000
216 2 216 3.839141868474643 0.646496904005381 2.716358291859292 0.400000000000000
217 2 217 2.555194181626599 1.845279435460286 1.165388666542090 0.400000000000000
218 2 218 2.445565689519567 0.010209771838621 4.335202976750006 0.400000000000000
219 2 219 5.424780344873489 5.967739291669633 2.435349951029960 0.400000000000000
220 2 220 0.541948208910305 3.342699869694890 0.908950137546172 0.400000000000000
221 2 221 3.055739785990809 2.972374549183144 4.979412560477123 0.400000000000000
222 2 222 1.140245401988603 3.411836994136562 2.223873540017635 0.400000000000000
223 2 223 4.505458601189643 5.833111492989447 1.672236528358586 0.400000000000000
224 2 224 4.529789800365141 2.946255572081992 3.103727931832991 0.400000000000000
225 2 225 3.336700291226358 3.617678924483731 5.846075825780516 0.400000000000000
226 2 226 1.599405412053350 0.939000790726993 2.259876470033727 0.400000000000000
227 2 227 4.665489008810336 1.471609895670257 0.525238324350749 0.400000000000000
228 2 228 2.452960066520994 1.133939818968791 3.508114925356367 0.400000000000000
229 2 229 2.387254686450362 0.553906106080296 0.889580454473416 0.400000000000000
230 2 230 3.228150693496330 1.441646179121163 5.759722531603653 0.400000000000000
231 2 231 5.198048831190376 5.381671118535971 3.637733223730075 0.400000000000000
232 2 232 5.442892459822514 3.390051534521036 5.518383779640484 0.400000000000000
233 2 233 1.389679527522606 2.145757162117453 2.670838893424414 0.400000000000000
234 2 234 5.930052894862225 4.921540480620759 1.305448242106279 0.400000000000000
235 2 235 2.201773654439955 1.686573317735355 4.780400031252312 0.400000000000000
236 2 236 4.465722879744292 4.280399900963481 0.403783600030044 0.400000000000000
237 2 237 5.684399231460746 0.191978348051112 1.098210184278109 0.400000000000000
238 2 238 3.874041974807016 3.776066892632884 2.347025909566330 0.400000000000000
239 2 239 1.096874571054059 3.327595265399659 3.569533757549671 0.400000000000000
240 2 240 4.997088686398294 5.889660079258048 0.085910710970796 0.400000000000000
241 2 241 1.196015625461148 4.656767072052233 2.187072321358788 0.400000000000000
242 2 242 0.747407815282979 5.728908253545847 4.532519909434768 0.400000000000000
243 2 243 2.469068275526511 5.557183515284720 2.907154861569248 0.400000000000000
244 2 244 4.475107719155751 0.863136550528182 2.084984327410840 0.400000000000000
245 2 245 5.923803770950694 1.729211489494897 5.453462941093799 0.400000000000000
246 2 246 1.839581133595896 5.266033821862766 4.279392147481222 0.400000000000000
247 2 247 3.103379936286953 0.574351679614837 4.785686616968263 0.400000000000000
248 2 248 1.520629615135030 4.647144274153094 3.447668657802627 0.400000000000000
249 2 249 1.319650481671250 2.305115816710817 0.240412154576280 0.400000000000000
250 2 250 2.107334740873536 0.597150149982608 5.959313819968390 0.400000000000000
251 2 251 1.922015460392144 1.859137439159872 1.941842009980539 0.400000000000000
252 2 252 3.750588598186872 0.506246249021007 0.944878111400981 0.400000000000000
253 2 253 3.389570103697949 1.882444805253592 4.038604759121859 0.400000000000000
254 2 254 5.577281938902440 1.061522468180008 5.951160257268634 0.400000000000000
255 2 255 0.750043835706147 0.241088497574081 0.196035447546287 0.400000000000000
256 2 256 1.138736471590696 1.278309224033000 1.192070400928604 0.400000000000000