ITEM: TIMESTEP
0.000000000000000
ITEM: NUMBER OF ATOMS
1000
ITEM: BOX BOUNDS pp pp pp
0.000000000000000 11.974146534095414
0.000000000000000 11.974146534095414
0.000000000000000 11.974146534095414
ITEM: ATOMS id type mol x y z radius
1 1 1 1.912275217383160 5.220705501149112 3.486304017222940 0.474818095322166
2 1 2 7.584939081309694 0.439023312798203 5.641670797377268 0.564196699818733
3 1 3 0.652082511468359 6.437570235172811 0.742752548434094 0.494486235529355
4 1 4 0.077120354151816 8.827938339344096 11.108082182315849 0.663668988175128
5 1 5 5.623697794399133 8.510028097788867 9.090870249151431 0.891455800706180
6 1 6 9.709525768454025 0.681720609247785 4.759409559765528 0.587105882432303
7 1 7 9.350829385863403 5.187022310759168 0.023505044352002 0.455529395926354
8 1 8 10.171585064004050 1.173894694502446 11.552268288244804 0.591266077216764
9 1 9 5.443449814710463 4.975530320087808 2.776933159684667 0.450586524584775
10 1 10 1.474509418697696 10.880876571378590 1.204112133969717 0.461685379473186
11 1 11 6.780807405084264 3.281134140971862 5.630000532628654 0.668289077879168
12 1 12 1.046455465225624 0.783976137577345 4.903796322177921 0.885550760695246
13 1 13 11.310810476637638 5.761602854042795 0.374056620252171 0.590136236922304
14 1 14 9.890110004693312 1.858153931676717 9.074518178046450 0.649699486464187
15 1 15 7.763927566519510 8.862127533125362 10.194970451083535 0.676966740136908
16 1 16 4.337120630083807 6.038913607454420 9.998337079027612 0.717825841941694
17 1 17 9.961648839044996 4.731003886399114 4.677346151851326 0.457959135920609
18 1 18 2.655835257815972 6.160470703677402 1.205103457514023 0.522892513734031
19 1 19 4.748103984867531 9.240761560232091 11.787821700700441 0.713628801698762
20 1 20 10.711598055178689 2.865539000539408 1.922606249226728 0.533711701477971
21 1 21 3.684851698117904 5.953095115363875 8.447076350124414 0.967175470226084
22 1 22 2.042781919151890 4.708255067765657 8.786902374883077 0.711443091155595
23 1 23 8.183873475272042 4.214968853166713 1.685324868856569 0.462827057372905
24 1 24 10.643050773680240 11.885478917155931 1.436671800052757 0.828717911743990
25 1 25 4.320060305178955 7.524717177543156 5.848543493949527 0.556459069479209
26 1 26 11.255618687161686 2.092603306981330 7.226765023475066 0.571099636937577
27 1 27 7.217104828354231 9.437161834820762 5.921337282288434 0.508435045732058
28 1 28 0.774689697318871 11.062163555430537 1.846010444629616 0.482400196640936
29 1 29 4.648513804346661 10.747828210420383 2.266396583344404 0.843691379511729
30 1 30 5.394103193866571 1.516060063901735 5.242765811339391 0.460468223778823
31 1 31 5.800860897155668 11.476372370336858 2.680800838532405 0.581233637791933
32 1 32 10.960111905418028 10.330414676142542 6.352653464566910 0.520309827777229
33 1 33 10.031526188769602 4.982081015396360 7.531322233080139 0.577180419387815
34 1 34 9.740418338422835 7.876424609703516 10.667681363956451 0.466407120735394
35 1 35 4.159100803349523 6.186512351035564 4.665721807356653 0.463035686252224
36 1 36 11.046312433325872 8.861914626511652 8.591458639206992 0.539457368959284
37 1 37 7.482260390736085 0.968530064667804 6.963637613081380 0.863569584032112
38 1 38 0.205712171226493 6.702621696446251 7.528772407814599 0.566266816792503
39 1 39 11.460175397653032 11.047821797131562 1.982683668818548 0.458457578355964
40 1 40 11.223569473079246 5.450673077673677 6.731696901017957 0.723756038841028
41 1 41 5.801495632444108 10.313031967416222 2.731888936780894 0.473516545176386
42 1 42 1.986749463330844 8.741495199188769 1.139174930533024 0.669284605693398
43 1 43 8.134414232449405 4.047427662864283 8.757226052705157 0.636867671931609
44 1 44 10.256153305991745 9.270747527445916 1.445245307234491 0.692338128285577
45 1 45 8.910088336551860 2.595408328969131 4.644545349136432 0.833103510210544
46 1 46 10.831529274321055 3.485849010590701 3.420732357481131 0.516804119590276
47 1 47 9.913522097526510 2.820555942957165 0.179296705387634 0.584662443781925
48 1 48 10.970786596843499 10.072085246505690 5.069852586681035 0.788287184019521
49 1 49 2.124317938715719 1.198418545490405 3.698052128594369 0.783990817940865
50 1 50 0.446947132553754 7.188270498690589 9.715149229047283 0.549431731701868
51 1 51 8.279345025898500 7.449754880516982 7.842780901878697 0.567517755321921
52 1 52 4.978900465416737 1.561888366454006 6.091001933421262 0.485046461699777
53 1 53 6.975684141195241 8.236780794439349 2.817798067159456 0.609203587731704
54 1 54 11.122138305274163 6.115939837261872 4.352569914657290 0.455245780462232
55 1 55 6.304097358700089 7.376698372430531 4.514612820521023 0.578900820461838
56 1 56 5.272537371320696 5.081874775384213 4.683167039758414 0.707864021908071
57 1 57 0.352617466062795 3.265531993937649 7.441389353716826 0.835591009274335
58 1 58 9.515175586698085 11.875031480506459 0.283308951168398 0.784495477509349
59 1 59 5.426671742727899 8.990750579161894 7.807582482503802 0.493008306148742
60 1 60 1.362951036337274 4.636730249730164 5.352745425056427 0.474583131608619
61 1 61 0.267671989510807 7.816467590546180 10.547486555730176 0.508352216231369
62 1 62 11.863068145864656 0.111263095272047 5.419268435228778 0.549070777462089
63 1 63 0.486088902750675 7.158855925238806 5.601945334502306 0.682324799302340
64 1 64 9.456759057785822 8.436129883606659 8.255272211862291 0.499574341587658
65 1 65 11.424224816778480 0.435689645396201 11.084370188574121 0.519894246638941
66 1 66 8.920330008284607 0.511768704614411 6.818628111002379 0.648692746387330
67 1 67 7.640238081780083 2.076752601703639 8.062471523148252 0.665108423694065
68 1 68 8.997957046020717 3.580882350175655 5.816773027829410 0.540573461054527
69 1 69 4.074443415772664 0.817724934349255 9.661517886999093 0.478241528683604
70 1 70 1.043226373038058 2.420863581406202 3.829230004191261 0.787894212512981
71 1 71 5.865625005473912 6.171488892907915 2.252148560261923 0.921983206912032
72 1 72 9.144191915725575 6.900427126922789 3.298423945649333 0.478375409391398
73 1 73 0.789417123979853 0.411446999310947 0.953993699233064 0.547270195127685
74 1 74 4.163421200201507 9.820241970246448 5.573042808440048 0.606204550084647
75 1 75 1.027350601627650 1.926596345181302 7.202246299702736 0.575114215780348
76 1 76 2.045569554673316 11.294274002407951 11.189642358210660 0.930926472992852
77 1 77 3.715503690978070 5.061373388254272 9.650875899558757 0.489957023657083
78 1 78 9.005914542766162 4.970861784665936 8.856228660068153 0.636727589955031
79 1 79 3.145890061971861 7.001475047473861 2.456317144047137 0.648258576397099
80 1 80 4.843189013297411 8.473743329607496 10.534133079428495 0.749738322299466
81 1 81 10.904382776412682 0.369620131808783 9.204351484258082 0.570621300747351
82 1 82 2.248966249202296 10.418557880518756 7.947237045502116 0.490771698470778
83 1 83 8.504789509540791 11.509221778309533 2.941055887873017 0.848504116545208
84 1 84 8.481753981794837 4.440890645906963 2.607444426154153 0.477053461831913
85 1 85 1.663982541075827 2.845364721928644 7.309196663074449 0.547772215037690
86 1 86 0.042869909104161 7.849974037384226 0.262120562508653 0.829779529781332
87 1 87 8.529999226813613 0.851950037885757 5.814072051542752 0.481446332196291
88 1 88 0.553043338560339 11.707141185542952 4.087531272416961 0.533711809027788
89 1 89 7.511582655362226 1.775866555631339 11.974002963342050 0.475576138636748
90 1 90 3.561408396923084 1.621331374474154 1.532448422403788 0.563012970125975
91 1 91 0.946285998189691 4.733684309827246 3.185142741745967 0.561954467565388
92 1 92 7.046857220361971 9.776398294753243 9.147730273206257 0.887256033067411
93 1 93 10.698554764047334 3.343920057032343 5.822599082162506 0.493601168895401
94 1 94 3.164047409113252 4.972951773847567 3.869044623061901 0.857400317799654
95 1 95 1.925152903804896 5.228830948307012 10.461845959376550 0.803110177579766
96 1 96 8.491952979027934 4.296695515296733 6.549001405011327 0.581790989717563
97 1 97 9.402525647257045 11.882089041595462 7.998992807126533 0.762115365026037
98 1 98 2.055740312840026 2.275392393780686 11.694874323695347 0.565478033869207
99 1 99 7.941715859630862 3.255419849438617 6.229454547420452 0.638506537929920
100 1 100 10.968634993519714 4.009646416908788 7.023420405110535 0.768441011640919
101 1 101 0.015680561313222 8.900843153938839 7.697578866422668 0.677591096047806
102 1 102 3.794875562229031 0.238303201951096 8.304222475222266 0.920446299153775
103 1 103 3.334656226037071 3.907954898880111 2.858776521395157 0.512222926477530
104 1 104 6.236888905732142 10.645409604654425 0.073963059046327 0.585121915544124
105 1 105 0.610916263875927 7.557392810872967 4.015375412282917 0.548984105180118
106 1 106 6.422550517128628 4.609484367479725 10.504846920327708 0.819702197971945
107 1 107 10.249848257671738 1.112592720139682 6.900409646883690 0.695201731771230
108 1 108 11.129699432112215 10.195246089722437 7.539322957802157 0.686013081030745
109 1 109 10.149194349725242 2.550409681289258 3.776851487093936 0.680270610509011
110 1 110 0.750750977812896 11.744055233269741 11.001323114072740 0.452662514438245
111 1 111 8.816205554687205 8.433914845697664 1.422526456987417 0.589348632201374
112 1 112 3.950251137087561 2.283633946094044 2.244628513689134 0.461364861814552
113 1 113 7.205423458149558 0.479304691479859 8.288166071684545 0.575275547707326
114 1 114 0.147796220346260 10.964448373878376 5.029838902149884 0.665517861886384
115 1 115 10.507311970918419 6.203113556579425 5.522412399106043 0.867179724432340
116 1 116 1.388458330267722 7.386657672407362 6.845629648399571 0.834762767763358
117 1 117 8.058915472007023 5.538962432738691 8.996277783919002 0.476447753668213
118 1 118 7.506500923358165 5.440849648671604 6.151834750245948 0.979601262462355
119 1 119 0.016858314805560 5.903501780754365 1.392910246464274 0.559764157589146
120 1 120 0.039124673649642 7.800175604058373 7.002559978139905 0.585211005893619
121 1 121 9.733489774274735 6.127669099721548 9.380699610950623 0.557592018373470
122 1 122 5.649641348746544 7.974230326534249 2.983816795382797 0.752737840248501
123 1 123 3.559967239657971 4.763854820413877 1.593528368055738 0.492716431206135
124 1 124 7.376022114864363 10.574423246885795 10.207444452169060 0.479560522437096
125 1 125 2.766268387249287 10.913483016847470 8.809847722867747 0.630232125237789
126 1 126 11.838705574891577 11.808683134678315 11.723142069395777 0.449357670061048
127 1 127 0.654409080875078 8.644334815256254 1.409163579723584 0.693603839365538
128 1 128 1.549987311614629 4.094598131457270 9.825794116913984 0.550197415220555
129 1 129 3.538770023874236 5.795178973036990 2.118336929209451 0.664652505764789
130 1 130 11.093897218826744 5.960706131956839 9.337975237739736 0.779183318487419
131 1 131 2.063438803805267 2.099967374890618 4.964865638047511 0.772066067056079
132 1 132 4.057094495672621 8.465715963147263 0.391059210843897 0.464612342575133
133 1 133 10.877043727311907 10.703571449632371 2.843624066533177 0.636882192170501
134 1 134 11.212551799543059 6.500602251710443 3.490361260979368 0.493196908586140
135 1 135 7.125139134521722 8.449507812919235 11.146250997887913 0.540916824139628
136 1 136 7.171099027958221 10.424621600475144 2.570444621462787 0.910029523248778
137 1 137 8.218986958725012 1.522348537558726 11.335949793570045 0.506961713618025
138 1 138 1.140475526573105 5.354649881758842 8.275086220625530 0.510824824944791
139 1 139 9.755071760453049 9.074480285093117 10.576558812590219 0.734222576182025
140 1 140 6.911374762517439 2.819397640745807 7.511193274095552 0.510330105133514
141 1 141 1.705872506872665 5.124867775838706 2.588639544433786 0.451242622307134
142 1 142 11.171654250204487 7.620527372134720 4.563789995394839 0.968404523219826
143 1 143 9.522614868835710 1.599818250023185 5.732906279062588 0.764017662201592
144 1 144 6.290774071511688 11.522164291153246 1.669010266717055 0.543858349641504
145 1 145 0.918202888299555 4.476627182632213 10.742466688956780 0.484720104326725
146 1 146 3.685456403192455 3.074912241526929 7.560226285871449 0.480463279540511
147 1 147 7.646904662482681 2.413422080949561 6.943027018657048 0.503885494706545
148 1 148 2.325623283656423 0.411020490491082 4.662159985885259 0.468610976074010
149 1 149 9.914844949455164 3.596085498909943 5.044015250435493 0.639527802751171
150 1 150 7.403583575599036 9.599929150035972 4.006035984943938 0.742911431353182
151 1 151 4.903240002315690 1.327212086890647 7.806323213350216 0.711147390718572
152 1 152 4.110902264054822 7.156015353491050 11.963132791813482 0.638862726459749
153 1 153 7.102238273991561 2.887018472861261 9.714261546357124 0.621441091569964
154 1 154 7.651474257958902 4.902150517186562 0.843569352906414 0.520238779439648
155 1 155 7.564919175116485 9.139994648059684 2.893335911848837 0.471860307069502
156 1 156 3.505052585357657 9.092155007673085 3.783798176498260 0.589809066233344
157 1 157 4.848517507158692 0.636107864576015 6.673795824193618 0.616642229160568
158 1 158 5.742233838313148 2.288623726321533 2.884083062343454 0.678073276367348
159 1 159 7.359934033771377 5.454630666057470 10.820653927210534 0.481333614706983
160 1 160 11.818599679834554 6.596075111734806 10.770573431484173 0.802461249103292
161 1 161 1.682569626738450 9.937721820058982 9.314595209290776 0.602682755528345
162 1 162 0.778162674352231 2.151732521701480 5.080832221173442 0.519468903424309
163 1 163 9.462883565717918 10.679822796180094 8.764934196843834 0.590795677028487
164 1 164 8.129236860744676 6.406548511112751 3.183288303138894 0.616702626234459
165 1 165 5.482786576798138 2.895188737601276 1.668732734758573 0.554572570826612
166 1 166 9.893998108118261 3.596569087797116 6.411889554870222 0.535187501325117
167 1 167 11.503245740287589 2.933134660102128 6.364745432724771 0.560056671459278
168 1 168 3.342345884661786 2.605179661611282 10.020980519026757 0.540606546535816
169 1 169 6.440822653047181 6.099275234978736 9.415327631875291 0.463924641201609
170 1 170 0.612538392550983 8.112365445893660 4.909138380851113 0.503065999338213
171 1 171 0.100003573641370 10.645060978307868 8.981871480999750 0.662154832161107
172 1 172 1.140186615020571 4.309504337992339 2.016115389254729 0.694445802853373
173 1 173 10.733022737516132 6.597862072503530 7.820314931978860 0.905895578796579
174 1 174 7.408424843778785 5.204691088431733 2.209065972518721 0.899221191619850
175 1 175 3.377912348267451 2.221625612249396 4.681053762240198 0.564831506774833
176 1 176 11.654502507847111 1.685602019122810 8.809360413212472 0.653771308806054
177 1 177 11.327427939368883 6.802940784952327 1.000062337937128 0.624995024341870
178 1 178 6.543593586143293 5.552471246813179 1.194064371826624 0.478861682368188
179 1 179 8.293099903409260 3.514403680476491 9.899744680684641 0.527355682052484
180 1 180 1.228144157328825 7.951297019908663 10.035051929103393 0.588468089118336
181 1 181 0.955144792312103 4.431189759741850 9.092938445783448 0.451904570116024
182 1 182 6.669827727170063 1.098974505709755 1.871331046805007 0.643845257502133
183 1 183 8.451002711832892 11.941068720330019 4.602252933299424 0.868749630943082
184 1 184 8.906148339168896 9.838865377575384 2.251560753657396 0.945614985254700
185 1 185 1.778685187051180 0.455820605940725 9.929477932610560 0.786350602207612
186 1 186 3.003066112260157 9.706716249249986 5.663178991220525 0.563169875914525
187 1 187 11.132485640364541 4.754185683017178 9.089744941554702 0.453212291289275
188 1 188 3.202401597646209 4.648185799765849 11.005491093490667 0.680528839479658
189 1 189 7.186277926260093 3.893988534782680 1.615820730913284 0.556536464533704
190 1 190 9.208738571605350 0.427549275878337 1.648247126754206 0.710273798220298
191 1 191 8.170938068421917 4.992517242516657 3.568239704602528 0.673609825643511
192 1 192 10.107530769339075 4.881111526132067 9.628837964544250 0.711804414417220
193 1 193 1.505838314941074 10.120770297470580 4.147993367890610 0.449964591329777
194 1 194 5.982254456233773 10.852100142561392 9.060985729868756 0.464251578549705
195 1 195 5.083150352814065 3.706065092906933 10.928334511602840 0.850477711709598
196 1 196 8.732088983060212 8.988679000730706 7.464877110312934 0.706734766751430
197 1 197 4.365930920624347 0.636349103273966 1.308952833492897 0.450341273333212
198 1 198 2.006337629653900 8.566820013847352 6.349558954490846 0.586730801410528
199 1 199 2.225166667389034 7.796267663205108 10.682907025216894 0.597210259028511
200 1 200 1.366381595104190 11.794133077009427 1.587228168905854 0.493738598586158
201 1 201 1.512041777197196 3.900736947267604 6.796126757686966 0.635501743539401
202 1 202 1.169156902952377 9.889614415774590 1.685984127141166 0.682011011615339
203 1 203 10.670166339033493 7.296892870008469 3.211393040112052 0.509840015054076
204 1 204 7.588312652952917 2.652566411704664 4.995631304001064 0.535698644584614
205 1 205 10.789802348222771 5.789123733549946 10.587140659095885 0.517857660541881
206 1 206 8.194837221378567 7.488217672478402 8.948801838490075 0.469051223427565
207 1 207 1.126900657700258 2.734022455043922 6.157298872136382 0.728050085407078
208 1 208 2.237924747053777 2.020709335237389 7.238258386334159 0.459450898607546
209 1 209 11.252666737681604 4.331564323952297 3.097838164096859 0.481022074338878
210 1 210 0.078151960115071 11.963307577069047 10.342138064477965 0.514283690631978
211 1 211 4.916218926982607 8.445942361236463 5.580160910998912 0.571126368752148
212 1 212 4.410745955416066 6.399153429612822 5.666479539918814 0.587335021448772
213 1 213 10.711973064809152 1.312642207334408 9.622759010259577 0.478843796300715
214 1 214 4.974360157305356 0.357061623678073 3.336512200841602 0.776634203424556
215 1 215 2.848301123842547 4.393870188765677 9.788748439422307 0.611959560732721
216 1 216 7.390241051694150 0.025994690574041 3.701825523104271 0.523726084761455
217 1 217 5.714998124697961 4.398195839033199 1.502056784634332 0.975023280236865
218 1 218 4.615702039060632 11.964692341855571 9.372682829818736 0.449497436795975
219 1 219 11.791413238153128 0.335585025029668 4.356219210928590 0.454557186093164
220 1 220 2.497720315117967 5.746541326408195 2.790597038821309 0.575542546513774
221 1 221 6.351019444710137 7.877359310195089 10.360917369688696 0.701405238580314
222 1 222 2.563684534339890 6.729568514900740 7.325160904810017 0.593969232418079
223 1 223 8.380888462346089 10.271248658142017 3.496893554207163 0.472917404332992
224 1 224 9.526556897148019 4.496150906906419 6.730065258764632 0.487307621516095
225 1 225 7.944997848966879 7.489049240902090 0.771669398087623 0.629133429362749
226 1 226 4.601817277927004 2.146549693002768 5.431417979849147 0.473635752645650
227 1 227 8.336815140584090 3.697083940585999 0.412453194479059 0.919850867493353
228 1 228 4.931317074671200 4.465314615734059 7.574817088906031 0.780761706139864
229 1 229 6.253581052959269 0.400687010693137 1.060471696147193 0.504353160075807
230 1 230 7.020155550597745 1.241219281064307 0.736152604696448 0.552388706904148
231 1 231 10.178667464639073 11.400400078056000 6.677940343546895 0.843997954913046
232 1 232 9.812186356698483 7.062896253457691 11.580101019216547 0.716672164985361
233 1 233 1.512121005088262 3.643649857626952 8.123497523214366 0.561796952868949
234 1 234 11.939742270562409 11.427025974151611 2.981559895063535 0.656076020017790
235 1 235 4.982755850693090 2.320410324530723 8.944685347384024 0.492254150399829
236 1 236 7.417192113958691 7.631121956800556 1.870858605173692 0.598457896527949
237 1 237 10.284354734799916 0.861953621959204 2.268681441192159 0.484516121858195
238 1 238 7.987638558702105 6.842390773971973 5.753115138512296 0.554930679815532
239 1 239 1.530860776935188 6.432889794110539 7.999039106780566 0.668668269648084
240 1 240 10.904933598516848 2.153842147907745 0.836660386828156 0.778983793186423
241 1 241 1.202512387063690 6.429153846795113 3.223298864623016 0.951114016141545
242 1 242 11.420001175110064 11.200305647200759 6.316283556000588 0.464337931381644
243 1 243 6.679604246722144 11.650122425528087 7.413999295877626 0.723181443236721
244 1 244 10.178765523283252 2.485364184934440 5.046005825491695 0.502120071374227
245 1 245 10.578263364617202 3.898392268603245 10.562199802554835 0.722939690000134
246 1 246 3.780793574899241 10.598432159568750 7.995116861595010 0.708537749740877
247 1 247 6.666667465527102 0.999140746790808 9.277371025091135 0.665294475543826
248 1 248 4.594988808955991 9.314075111610245 7.484896597810398 0.455865465991319
249 1 249 3.061386716344808 4.821222884457624 2.528973220726325 0.495135167674436
250 1 250 5.204904890952981 1.800438585768623 11.607428493301525 0.648997061997320
251 1 251 4.096103934798706 3.980437248905428 3.574877457048601 0.535563706447441
252 1 252 7.865439134061443 11.354400423415999 1.766124814521902 0.498047616902470
253 1 253 6.738249520818610 2.275654140795597 8.749961232898595 0.482271538383202
254 1 254 11.731603378618937 2.550340314880056 11.296471943831783 0.480908471480812
255 1 255 2.593265734176246 1.658022179454577 0.795714740222712 0.654124225644902
256 1 256 2.662031170154398 2.866848159396009 3.561437990172800 0.912442158592893
257 1 257 7.286932690960006 11.411894826992993 6.225529173244805 0.632569811553239
258 1 258 10.557872247525834 8.687798185425594 0.507332545092903 0.452452072944195
259 1 259 4.583207264251026 9.596872053523434 8.597485822853244 0.690025875226613
260 1 260 7.997956375018942 0.789908774462218 10.725039080931507 0.459147255065920
261 1 261 0.021631363197246 1.841492441813697 0.076112343891786 0.587009235987146
262 1 262 9.770743243188766 2.394686369503854 10.240166982263734 0.461396409182862
263 1 263 11.801859107609468 4.444319410195203 1.021708723143641 0.957706671945095
264 1 264 7.362252354757363 5.907822766969273 9.736235910719518 0.523125079940335
265 1 265 8.789476229736190 10.600055616383555 0.568036211478405 0.704369178518922
266 1 266 6.221243437846070 9.480672575220115 8.094240361784488 0.483485668521483
267 1 267 1.967582043838978 3.675323919370654 11.155104295912670 0.898592337349185
268 1 268 4.621880679698264 10.682247633170604 6.100130230621919 0.503326883906094
269 1 269 3.321489347786869 1.620975918779507 3.768847407828475 0.473198380413230
270 1 270 5.345197993081600 7.332050762476114 10.062593970673117 0.480980085737412
271 1 271 5.615574973498163 9.416896174018950 10.529477761134272 0.469334699916112
272 1 272 4.055153305404684 8.238485375296904 7.050344642679088 0.534683646229102
273 1 273 3.770682002034039 3.462866352252369 11.254765478829821 0.522608079097668
274 1 274 10.377930332751546 0.522586512119485 5.741541839682939 0.611506707393659
275 1 275 10.047258579623318 6.428685647160825 0.871389009790646 0.714951737334470
276 1 276 0.274044049760043 4.349422347400690 4.409612167268723 0.676109584572363
277 1 277 5.489415002764638 7.820275028594905 11.894800885059851 0.892225664788949
278 1 278 4.198015325611546 7.076681243242911 3.039314527871947 0.532735594968715
279 1 279 0.475903560227622 10.391493827676701 2.590083258626034 0.562930072764255
280 1 280 8.689686797055398 1.294514366060354 4.832897735507617 0.499705015820024
281 1 281 5.729777892331234 2.059171547813194 4.457350143723247 0.551471775512923
282 1 282 10.364258770335381 5.924351707624983 11.762849031181727 0.512342657477040
283 1 283 7.208872706631674 2.287945167132163 6.055387661068369 0.493872032945305
284 1 284 0.996568548340650 3.231100104889804 4.943177884959265 0.590343793528308
285 1 285 2.354485187389687 3.207533625568079 9.189292260706036 0.805976722970592
286 1 286 3.286959178912389 7.440191057160556 6.543995258804848 0.683423789154638
287 1 287 5.352813766339226 5.469796283394188 10.584352569928251 0.539047754445440
288 1 288 7.186239904807391 4.049597471623552 9.495106071919489 0.564592352979576
289 1 289 1.257428057262311 1.489811034733851 0.421183783443495 0.743384535892545
290 1 290 2.268180261116755 9.658526502503683 4.579362324039023 0.449779977314640
291 1 291 10.981976840094433 3.286578434268097 11.729731442417219 0.655621470961563
292 1 292 8.887380228247071 1.569407416383550 1.486088324980104 0.486975832557122
293 1 293 2.229886809052416 10.751946010290633 1.743384423918418 0.475348609633626
294 1 294 2.814082410201501 6.606718231124540 9.973534500736026 0.907801015506626
295 1 295 6.823626499652261 0.144738667535890 10.535382614159117 0.625169705033560
296 1 296 7.936500095211115 7.342090590803016 4.793248543567641 0.528424723984951
297 1 297 6.527032506830710 6.007637363997275 10.454904912619703 0.583238460933612
298 1 298 3.934829682527955 5.159256806945015 5.323552153524026 0.777243024887730
299 1 299 4.607992652758221 9.045101154118933 6.543559173583763 0.523232199098849
300 1 300 8.333546328971009 7.544867766352085 3.715383164116819 0.638004898966149
301 1 301 11.200146051490314 0.172796013280255 2.565333426529440 0.456815222347131
302 1 302 3.664592763569663 8.621674122040746 5.850848281456156 0.721413205760401
303 1 303 11.651956903968276 4.089220541380061 8.481316853871020 0.587060593656836
304 1 304 6.777971523824177 6.875309837407807 9.866289653453581 0.494858860935344
305 1 305 11.973628642848515 1.744654341768532 3.989653928882359 0.466058279428729
306 1 306 9.042906504620458 4.239934698253363 7.761358912523306 0.680224412870549
307 1 307 9.601224819566244 4.053513608236200 1.071912273244626 0.505056092506585
308 1 308 9.913453445531001 1.164359760361521 10.234147461388808 0.537672737635377
309 1 309 11.103143059819852 11.365407564412765 5.422964505873873 0.497782971867987
310 1 310 9.302484851358713 4.037956370181724 10.421950930102746 0.568090253631895
311 1 311 10.666723957834632 10.010969611403690 9.473154622744875 0.957807663730857
312 1 312 4.831216080763399 4.632173318918971 3.705237970187980 0.455467894548537
313 1 313 2.718343108163094 10.083623179270571 11.140220769407380 0.454981954279509
314 1 314 5.253172265355317 9.703964026810301 5.026802651572869 0.618318317777269
315 1 315 8.365435287846669 11.781975363807721 0.913982411147336 0.523273168748327
316 1 316 0.996476284319772 7.943068250454426 2.992583491388180 0.594077648791402
317 1 317 8.478153646368744 0.890356313526520 7.959218440594264 0.545596708766058
318 1 318 0.612453253030584 3.085192487826505 9.188934763033309 0.940345912710234
319 1 319 11.451318128710684 9.478194198820328 2.331594660096572 0.810016076970162
320 1 320 10.192302873928352 3.112511565310550 2.755530069934971 0.478427135339094
321 1 321 9.241220764708808 7.052746382153484 5.508385372540825 0.642028745936288
322 1 322 8.947045349758117 5.261159670530017 1.302343219130609 0.887588233718866
323 1 323 5.770545715189370 2.539882569160747 7.995670457802518 0.760235805930016
324 1 324 7.331495736998535 0.216442521974508 1.273336264745919 0.609719285162242
325 1 325 5.759782790440225 3.687537525677347 9.204474408214903 0.906627935214402
326 1 326 4.411481500959534 9.612464177970676 10.704693602507902 0.479955719947685
327 1 327 2.169941473796717 5.936946346168445 8.879918288609455 0.527296461962631
328 1 328 3.525522119999511 3.686764486158347 9.334027164988893 0.467576538919986
329 1 329 11.401855504684663 0.985027335156644 5.588114327390623 0.453271469976404
330 1 330 4.367892149314930 1.256720286635927 4.536408566695040 0.799059465888728
331 1 331 1.519792039436771 10.903777154588958 7.196719809417428 0.661173813704070
332 1 332 10.154622436457466 2.474899279474641 6.784992517058866 0.675297531773287
333 1 333 1.446905113430337 3.378800552068057 3.089150120732616 0.488158551187782
334 1 334 11.666879478994289 1.175059798921847 9.910619670647925 0.527952578122217
335 1 335 4.666656543891880 11.150228273667649 8.557013402642287 0.476772283016673
336 1 336 2.576716003406480 6.891351539048756 8.620440102770260 0.495132560857084
337 1 337 6.381270006788371 2.003187015713101 0.123143582409740 0.615729162910200
338 1 338 10.102381971949439 5.196177737077262 6.476206747953290 0.453997972340245
339 1 339 9.247964325778421 4.831577638693972 5.606464352122789 0.717932566071705
340 1 340 7.300351304331727 7.660265535825109 4.101534062826649 0.463739326591069
341 1 341 0.533679165176012 9.487497256636001 4.795776483117746 0.878851091328317
342 1 342 2.509115123081728 1.424380162655606 1.979521355716605 0.554437074687369
343 1 343 11.067662992427138 11.300123934636989 4.108335730300475 0.774395995609712
344 1 344 10.301471621930263 5.137914234409970 0.627276666397480 0.623071411447286
345 1 345 8.804200446365559 1.886773545866727 8.483256875404592 0.587073967901920
346 1 346 4.428502117753569 1.786996506598034 9.868905623876543 0.481274447479164
347 1 347 7.611547188205829 8.636114222112269 6.595850402112275 0.610417085946429
348 1 348 9.550703898409424 7.532463667112943 7.650261172259959 0.591973466684843
349 1 349 4.316359535432579 1.872653775967740 3.218111099366501 0.656941181256218
350 1 350 8.276024744721910 6.404008917900733 1.976275128000506 0.599206061259537
351 1 351 1.881679657855005 5.533160990781439 4.861796921111999 0.657455541602910
352 1 352 8.485036879805826 6.457993116833245 9.412944438780130 0.609171301262719
353 1 353 0.353574458199138 2.350741574016491 10.469175096921422 0.558137216783110
354 1 354 0.009572737345287 2.979528355516509 0.411243799112905 0.580362441193074
355 1 355 9.569857838284111 8.548388696984636 0.483031166873199 0.454985262340366
356 1 356 8.148215743959483 3.211856379756428 3.615198173022665 0.588168332970434
357 1 357 10.057972958368468 8.172484251123954 1.176263058315025 0.455620549759340
358 1 358 4.015312207155744 0.692617038830276 10.599348781634577 0.469743318863447
359 1 359 7.620873555757874 10.923414856480617 3.928587599143491 0.600526672752929
360 1 360 9.291132558482145 7.532245986339096 0.757295486951870 0.627653681762459
361 1 361 7.163636093717793 2.034871924895934 2.739889589338839 0.725129019549018
362 1 362 2.455455312490585 9.726717475470078 1.736223559567086 0.574425641101729
363 1 363 1.188745094755250 3.023412912365064 0.837944566827694 0.674407197725884