ITEM: TIMESTEP
0.000000000000000
ITEM: NUMBER OF ATOMS
342
ITEM: BOX BOUNDS pp pp pp
0.000000000000000 -1
0.000000000000000 -1
0.000000000000000 -1
ITEM: ATOMS id type mol x y z radius
1 1 1 3.747793201441278 4.787243594098393 2.266926625012711 0.889846875862869
2 1 2 6.696322155621659 7.886189956331872 9.681123982459205 1.746550510964823
3 1 3 5.175387408392782 6.706606927488965 1.669808888207100 1.585022369012544
4 1 4 11.400587810950263 5.352989078667374 11.146357861121890 0.555867552693517
5 1 5 11.029492165264692 3.606893677761643 7.658799371008224 0.762462740441948
6 1 6 11.048643024535950 5.838622586511182 4.870640908636559 0.304311991923882
7 1 7 2.105379688176503 8.982410949581682 2.235475290656984 0.887776178576411
8 1 8 7.501529152876072 4.854487765350163 3.088120593028996 0.081292327708459
9 1 9 12.035456544974959 2.555257844842669 6.563201373086447 0.147019100224689
10 1 10 8.377673056071457 11.352614420795302 5.393800585008366 0.261275758217122
11 1 11 5.552481192524219 2.190018142333749 5.187108968211048 0.885884954633838
12 1 12 4.006352746264524 11.803276092684060 3.122062700351713 0.826797448668375
13 1 13 8.638192477974377 8.229509422432949 11.205431136327318 0.401169619120696
14 1 14 5.082340031011740 8.929798441033650 1.850128441929072 0.652984950872062
15 1 15 10.815829056531310 9.911747563858748 1.310122929529082 0.947400466523092
16 1 16 8.688443184835362 3.072762482641756 5.387409769936423 0.867950402031344
17 1 17 1.847948073984271 10.860575951777763 2.751568614779372 0.339002096651965
18 1 18 3.344404088767357 5.834471923850622 7.101125409870443 0.502558738277194
19 1 19 11.875937874275277 12.071139643502031 6.450963396832957 0.777659693450710
20 1 20 0.397562240403202 7.404339675200800 5.592857098216868 0.374378600923424
21 1 21 8.437128221158934 1.732514107338524 5.457485173630678 0.207418333009607
22 1 22 5.122465921536972 3.188933296699171 4.316204680771508 0.509786441585668
23 1 23 5.309627201202988 0.354490715893101 9.859696438711893 0.849080764126507
24 1 24 11.287509502367936 12.268451062447800 11.174403992270575 0.357795957688516
25 1 25 5.817859699322398 8.816886676329950 5.817347480956164 0.576996160793011
26 1 26 11.423736621526464 12.085991104986981 9.082087845916645 0.165178502611823
27 1 27 9.807806255637566 0.896620796328883 4.412456425878680 0.408493656430537
28 1 28 10.207008368732298 3.899049727293105 2.971243010684115 0.514485787261093
29 1 29 0.489855856332036 2.440985271984722 7.864670298111400 1.344720123003374
30 1 30 9.299388193758466 0.964853727276387 7.805581212999273 2.405514116207581
31 1 31 3.150337315512939 2.777368782220250 8.071295153403931 0.584932873664294
32 1 32 3.579215005166886 3.585578079513053 2.644326593093397 0.380256318860418
33 1 33 0.910741158089321 7.530558283440262 4.575245243789876 0.771773280093222
34 1 34 1.243240770792227 0.197513911916744 10.002635614848550 1.559011715776982
35 1 35 4.163871170035033 2.208785469044236 3.577366313060451 0.639928265796277
36 1 36 7.533663810021745 2.501170744510234 9.471389681495282 0.471472495047795
37 1 37 10.912630913208826 8.337542610965492 7.511002756258478 0.696819967434584
38 1 38 11.619498316863424 7.251419663432440 0.381089057341179 0.941065722685224
39 1 39 6.538270925064006 7.816978021545928 2.319769485475228 0.237793362418682
40 1 40 11.115678797933535 11.124293789373105 1.493831618693130 0.295971592697302
41 1 41 12.093313031090263 8.642850019980981 1.409126916156425 0.857860400934767
42 1 42 4.830591589266019 5.364544691032633 0.457827147370049 0.207121549171224
43 1 43 2.293860427728597 2.259816446517548 3.419779226491692 0.309854871667022
44 1 44 7.072069357193560 9.126448190486588 12.207121584228496 1.094893892438076
45 1 45 9.444958259715778 11.935658114959903 4.833670705386622 0.857063295192764
46 1 46 7.486173441308744 3.302539393340837 9.004489553063587 0.455195734889760
47 1 47 11.880672072599282 7.223957260058316 1.801572776084244 0.426286708424412
48 1 48 4.772949694068505 2.309411576656816 6.185559397820660 0.385965270933674
49 1 49 1.752205146704729 11.862604974998614 4.137919018615691 0.289571800341472
50 1 50 4.046693935790688 6.008604883695100 11.010168333801690 0.443716585273252
51 1 51 6.402635319929185 4.863740992064249 1.310602320234425 0.671031473617666
52 1 52 1.312117750482350 5.960466990392927 10.038436017096142 0.379888934725410
53 1 53 8.567746734218829 5.194395220154555 4.253608658390496 0.822559693020287
54 1 54 9.726962104091852 6.130233384145667 6.322500469802431 0.992418702376589
55 1 55 3.294583727205430 2.207165052981983 10.165384088062064 0.827787093269177
56 1 56 8.138786366697024 8.028677847462880 0.236461316497266 0.464617391273330
57 1 57 0.962934032669756 6.616761836267603 5.399686916734095 0.321154972554291
58 1 58 10.780348529362989 5.998298372884260 9.734472945100899 0.578410981725148
59 1 59 8.125931805415583 4.356518434002234 9.909636310632020 1.074504953160976
60 1 60 5.986069177409363 2.938042390279285 3.480957795005511 0.329737384068357
61 1 61 9.378248990765355 1.393101712917947 4.971380500763974 0.451178938735093
62 1 62 10.337352911260757 5.136283295513913 3.991198712313583 0.969652348271610
63 1 63 9.260882125493838 9.721913202098065 9.003789540798492 0.623673741110098
64 1 64 2.830906300396413 11.682258687751961 2.685115101057348 0.419593577768827
65 1 65 11.947715885888673 10.753414696902507 2.399771509483339 0.835596359256783
66 1 66 0.792460208062107 2.751963872938457 6.157890983627260 0.401062724716269
67 1 67 11.511272018873266 6.114958953491041 11.753849297515549 0.423440665455014
68 1 68 4.491175065015059 8.682663421629989 5.131710089092441 0.923276919742759
69 1 69 0.231053382067558 2.012547809514402 9.688223088425325 0.547609661085720
70 1 70 3.300568927881700 5.906634853453794 6.166098218379249 0.431688921178327
71 1 71 4.943923762904130 4.127536814374460 1.059576800497825 0.922554515601775
72 1 72 2.177278085896649 6.878763317344621 0.937018703857053 0.166986659580219
73 1 73 4.299155199124163 8.045104480673137 9.073261249228793 0.481201670369158
74 1 74 3.953410180805360 3.288577537748694 4.282762675138376 0.665664701692337
75 1 75 10.007574318871560 4.396661737053652 0.187846035000587 0.291576184376147
76 1 76 10.057026119778605 10.742057269133515 6.909972068326936 0.274157281546203
77 1 77 2.037958214253011 5.648376994487768 5.439811141612520 0.753426912685457
78 1 78 0.441345067073383 11.729851861548404 2.371214706557152 0.401774533131551
79 1 79 5.869874509663719 5.069541715779386 8.795742570816740 0.754844095466583
80 1 80 9.390998451873093 9.589277988032050 1.771378934753709 0.559827212232870
81 1 81 10.557314335991425 0.259187364139746 4.086104583479953 0.611560338548936
82 1 82 7.661394265953584 6.768017256597343 6.759391586818689 0.296264373723854
83 1 83 2.022131441646085 11.945126646792975 8.018716371628569 0.637193326242417
84 1 84 2.706372500900166 12.102515468733190 8.783000030115256 0.381431040462733
85 1 85 6.326698894803266 0.706631291526718 8.363730080046041 0.626675622569405
86 1 86 0.731746063392405 1.174313837596662 11.612304163561360 0.367681712815087
87 1 87 4.647295463583807 10.078642129647731 4.979317244663144 0.488471299287378
88 1 88 10.489326515464210 8.620408637429524 11.148440826985128 0.574016806622226
89 1 89 11.888346835223961 3.309180006472467 11.256158456190704 0.457997549469163
90 1 90 11.220766240781016 0.569708624648427 10.234485164887127 0.691475844934078
91 1 91 0.729974832553952 2.663273107576931 11.939740398723881 0.425655770997583
92 1 92 8.234288497357424 9.443513391380396 10.836459559987013 0.730364669988799
93 1 93 4.930160546360335 2.753331879710648 11.222002145941373 0.574152766833128
94 1 94 6.849391198903824 7.149410588232751 12.190472266637492 0.899495062910188
95 1 95 4.449810331943386 8.321931276711156 0.612776778517483 0.420538147565221
96 1 96 4.307411059192400 3.890611491204239 1.983583216809462 0.119127098673562
97 1 97 6.835085916532853 1.130533534709039 6.363409457922283 0.461211594000952
98 1 98 1.394143812006901 3.667496044454009 10.335132560653062 1.580045811454464
99 1 99 6.340952097443312 3.648465589911150 3.039299041577431 0.260601211354889
100 1 100 11.685169849650650 9.715008954071024 5.169465303080510 0.724307175862471
101 1 101 1.725783911131940 11.903335392295579 3.016527824236068 0.741795779679454
102 1 102 4.174855614917041 10.493768508777006 5.261448047435987 0.163858643999132
103 1 103 10.598340141418829 3.177650014540646 6.659434780381642 0.406730606878973
104 1 104 7.933538298086964 5.969602920174036 9.887322744202956 0.552505292984981
105 1 105 10.656821576155931 3.928607029440505 9.864308822711930 1.500801185558094
106 1 106 6.729222231937115 2.006415296472587 7.623862809158277 0.370713150297615
107 1 107 11.020667038989663 7.597394518856992 4.914723795435981 1.422748057514537
108 1 108 9.636504912950475 4.761984499362834 1.015180178038559 0.335396972660573
109 1 109 8.151877302644849 1.151454288424110 0.872602235899003 3.510367183332901
110 1 110 5.555764834063260 6.118096000279252 9.575126602186605 0.338142505427072
111 1 111 5.065039915467425 9.490721829552886 10.374739805589639 0.649233255045102
112 1 112 9.629594452291776 2.565146948989574 5.762440744824517 0.201233928346056
113 1 113 5.447688797360747 2.238276223826527 3.724846246679737 0.583138418358129
114 1 114 9.265503539059626 6.465064077623102 8.609161367163182 1.366208532216152
115 1 115 7.946742775880578 6.205256784104262 5.563778033578380 0.946197710655566
116 1 116 1.176659985314506 10.809066623373273 6.729897293357731 1.277588573238513
117 1 117 0.628829615117561 9.928548127927325 4.918984104381301 0.539762657477747
118 1 118 9.966313744677807 4.751083634302552 7.462438179682246 0.814777179661181
119 1 119 4.934719556381381 3.443112779099432 2.845014903767746 0.996062016536640
120 1 120 10.318860137561025 6.449361814974443 3.154281536421564 0.539035923487637
121 1 121 7.991077974018500 5.198536312281824 1.113389409784998 0.560471784412235
122 1 122 11.323774460947680 7.870955243188098 11.321198293668589 0.561430447528494
123 1 123 3.595939439421475 0.490216588749292 10.311441268592379 0.833376706893744
124 1 124 7.813326117758232 7.252213381563515 1.687214796535740 1.131171855560841
125 1 125 0.844211951011535 9.919610263087712 1.628906599271752 0.798677094804943
126 1 126 6.195056949067554 1.099908883486084 4.432586908790064 0.590504251554685
127 1 127 1.691943683937663 11.172088345435791 1.749911453093161 0.721129968776110
128 1 128 4.572902970411641 7.672133720490542 9.814208713167506 0.391658914293742
129 1 129 2.671401168492173 4.070293456970113 7.138894005150580 1.001867987873043
130 1 130 0.637417125738623 8.736775811448677 5.919350519890247 1.017753935334253
131 1 131 7.110210022395703 5.617789015655305 9.102075924404662 0.641863868734270
132 1 132 2.665855702408101 10.232814090376991 4.377319126561449 1.592601566695389
133 1 133 9.169994039334991 0.838936013567884 4.443768801746595 0.216852278635871
134 1 134 1.316835878990210 3.957829723680851 5.720358875059929 0.963593593839528
135 1 135 7.194398539176135 10.549231344528701 3.878728037202791 0.784247578253875
136 1 136 5.455922783582329 2.709944153709706 9.042555962905640 1.660965410282871
137 1 137 7.826529890740492 8.797136836546812 3.355316961175777 1.157693842556200
138 1 138 1.866308027234039 10.801935155914851 8.812947299813885 0.585923556287739
139 1 139 9.162904423925587 2.894866133608761 4.219200071039903 0.404649238662953
140 1 140 1.126178410234733 1.835608132152811 11.139685124817658 0.440100375101245
141 1 141 9.208913047840118 5.435701472437586 2.256011743529971 1.126842557359915
142 1 142 3.193666629603029 3.285091029313661 9.150276773791603 0.608194518345995
143 1 143 8.385160036917862 9.071225075280296 6.535966789155646 2.114016747635885
144 1 144 6.890060163368681 11.920027281468302 5.414395386459916 1.304100242358857
145 1 145 4.460827764193111 9.271241604519153 3.795181829042803 0.537318899091500
146 1 146 6.889808711911868 3.574109816829685 10.311334830698556 0.442312062013605
147 1 147 0.751406500374689 0.386955864777135 7.468460744867273 0.764808728839765
148 1 148 2.954604138767076 6.811562677837508 1.326811358192116 0.681895980728824
149 1 149 9.305544382147739 6.214894741826999 11.735814994892648 1.786589830551638
150 1 150 11.671356049044647 6.746652550479094 2.942594096939887 0.827429142117239
151 1 151 1.791937531077282 8.743988247789918 7.611171924776401 0.903956294532514
152 1 152 2.071518099419791 10.268637566966014 2.422781253264544 0.369131514365735
153 1 153 1.748445050226171 1.059200865944520 7.937533616882201 0.525981296588690
154 1 154 4.461434234601164 3.962640735132948 12.115193993151099 0.396809170470411
155 1 155 3.934081453865229 6.601770249852888 10.790886155028669 0.185793495781040
156 1 156 10.862502675246143 10.568653630557916 10.261777889119166 1.600899325463009
157 1 157 0.135940550122195 1.116539969568985 6.421262062282207 0.651689055369257
158 1 158 8.303798888368430 2.983924451700469 9.443383416936179 0.365958828896973
159 1 159 3.243484549052303 2.333689652290822 3.449749235993272 0.295264671459895
160 1 160 1.463112436624822 8.088152019522546 3.807142849320595 0.301872008744365
161 1 161 0.491977274803342 10.717372912375991 9.816835284888230 0.362556168829591
162 1 162 0.311251609628149 6.068438753487505 7.714300050394785 2.134263378914251
163 1 163 3.739415414197980 0.864188511884005 3.381354820172454 0.307530160615349
164 1 164 3.949405150646596 2.806057388530923 7.248500957764072 0.562206751650406
165 1 165 2.449012324437976 11.287897499660096 1.108655387906477 0.246263554229300
166 1 166 12.078195794974546 11.800189539228930 8.305726282907314 0.768157873765588
167 1 167 2.312849669953314 5.588450112982424 10.664331269768009 0.493287917683128
168 1 168 9.334749740891793 8.323917048212071 3.414997040480997 0.423850656786914
169 1 169 2.640301222784938 7.597829853332918 5.729009303580090 1.308737158297036
170 1 170 2.446335310769532 6.886980312468385 8.734803472068903 0.371263038246781
171 1 171 5.122042741731204 4.569352125503938 7.705574226388165 0.661042719756700
172 1 172 2.297638716688936 9.362611054287578 6.346338308781145 0.592382562433836
173 1 173 5.434921036623424 3.718679307107501 7.330975978294578 0.314478626474586
174 1 174 6.592621371905588 5.820497860254682 4.903982197149870 0.556810225013880
175 1 175 7.430469985377371 6.150186008233349 10.661629103758433 0.383652294923328
176 1 176 7.605889840589506 4.423832125798389 7.314453143014623 1.578992240926914
177 1 177 9.154720065837774 11.507642833284400 9.947582757291213 0.352089098678863
178 1 178 11.776601432407796 9.918457692956139 11.995183268301878 0.464820792947404
179 1 179 4.258025643746802 1.986318877885758 7.566693027812409 0.369062328782303
180 1 180 11.298824470542991 9.093966831405710 6.396501539459390 0.704485723820221
181 1 181 4.633021964412765 0.641699669736269 8.374618613198416 0.219972619675757
182 1 182 0.086653596615262 11.704603609739651 4.371773780573602 1.398811810948176
183 1 183 7.015100932291645 2.358178041941134 7.045296552998303 0.363154333107457
184 1 184 5.086404177237815 9.751887361225110 0.492806277995255 0.937299186529225
185 1 185 3.734902674115351 4.059542146587154 1.309669015920073 0.307386475049380
186 1 186 5.357872294176965 8.134315798819719 11.933905530745331 0.908972929909488
187 1 187 5.897471000497394 9.266199591896649 10.974446070177528 0.305860041155922
188 1 188 10.290170782017817 4.189288474367119 11.780473871036516 0.469356396724798
189 1 189 5.707132808122682 8.329783318365619 3.643393729137899 1.037415459515032
190 1 190 11.946098381108325 1.208866970881410 9.050765918754658 0.554602192000712
191 1 191 10.937648342940664 4.966133375361912 5.608725968919428 0.765975585702938
192 1 192 5.869531438298422 5.084126444477201 11.217518241680724 1.593031794787245
193 1 193 8.240388459321956 10.319872040281671 3.268108289721663 0.417311822022738
194 1 194 3.082590805948448 5.126714085112881 0.082256677527249 1.423098117783624
195 1 195 5.117429985289101 9.894764400884061 11.393413120923505 0.447336284021081
196 1 196 0.419838438216803 10.337878410847662 8.656682598007269 0.858075418447451
197 1 197 7.011869568497409 1.565521605261582 9.230343144214036 0.278672751077607
198 1 198 8.672975004339069 8.111200181205895 8.819202670100250 0.379721857232685
199 1 199 10.142828093905742 7.852187859888841 1.950845387632894 1.313724904684519
200 1 200 9.905854206715459 10.373422728564780 11.897303303147034 0.213677849122607
201 1 201 7.173627466996054 11.352692598510878 7.074540983244098 0.452276465062049
202 1 202 5.451644857795051 5.176611698094065 3.464106403355296 0.783670968079695
203 1 203 12.014628654742648 1.914382974107271 11.099710070416625 0.950805827928643
204 1 204 3.790873302204855 5.729521872880186 4.457387240245768 1.231063603775735
205 1 205 3.693834944024777 8.498452182812832 1.696993303970766 0.738584973054627
206 1 206 6.771407569368740 11.926309767235539 9.333176841019519 0.857602103384809
207 1 207 5.433884834720241 1.245359708329984 6.823124081371055 1.018813472302305
208 1 208 4.602411881226784 11.325785408693452 0.458577193682958 0.710673708044571
209 1 209 1.909434246496687 11.530728769487881 11.979043982294501 0.464147727546678
210 1 210 7.569615186283046 4.983308354427908 2.148741489510668 0.576989767140728
211 1 211 5.750806414089746 10.535443571504942 11.741328074419085 0.517155865135761
212 1 212 8.219909857757264 11.312977174110930 4.299758422807614 0.520305983024692
213 1 213 3.473607642093582 10.448935685883715 1.715970164445033 1.207228095297368
214 1 214 7.321293978710931 1.842673719880852 5.283610175894878 0.920887770369337
215 1 215 2.809036489480802 12.124133639658004 3.539087828491081 0.481174351347254
216 1 216 9.390488852992544 8.410792078567651 9.998538532744396 1.032245011012413
217 1 217 2.086809158261691 10.938725546855286 0.687997260898654 0.405393271666937
218 1 218 2.389702589142841 4.194073627484469 1.756923696387410 0.468704304959639
219 1 219 9.236963389535365 3.911698758695763 3.830957823146100 0.684967378760134
220 1 220 9.316150374950178 9.058230710453866 12.275072870125715 1.111994058098182
221 1 221 11.491348265239715 2.154971988510199 9.345496340932755 0.534225011232352
222 1 222 6.344661451582862 8.694363671939549 4.903663042939691 0.394271500551788
223 1 223 7.052731616078455 5.886372711150426 0.783523369820398 0.648993185629128
224 1 224 3.618403260248757 5.403569577433019 9.094912525060648 1.553053393718667
225 1 225 4.339794526702609 2.086567390583638 10.811627248462814 0.405928446103936
226 1 226 1.926819075784596 5.571336840521545 9.699569384219069 0.235516985509350
227 1 227 10.424085455134206 5.207495719047824 8.507275479695787 0.320898435353652
228 1 228 0.289586203989698 1.562733837785402 0.537696378243555 0.330908506948736
229 1 229 1.503049626772722 6.934811590592473 2.668091272353210 1.312515201985285
230 1 230 7.109305322282061 6.013859814836756 3.356930209954049 1.077099445074051
231 1 231 9.944791255466026 7.083093824038902 9.987641166143376 0.261499474476549
232 1 232 2.946586195866832 1.551987449378638 0.944038692277935 2.345671628223337
233 1 233 8.331066221703503 10.728965992794203 8.347753017753144 0.340980426368577
234 1 234 11.019536863252979 3.444011140230863 11.606493166668304 0.342261241963291
235 1 235 8.794401266938012 3.510088486425771 8.843359776422886 0.343235575417409
236 1 236 4.252146742809168 9.203396173342499 2.706437309267944 0.572510668843287
237 1 237 1.320723252102203 2.152418108685273 3.387010930154301 0.667680971414366
238 1 238 11.368746081707993 8.599290648025981 10.599200437695403 0.446187240856351
239 1 239 4.749045781643141 0.079941876822903 5.774400919917477 0.396632696727956
240 1 240 3.204642010742874 3.612184582298602 4.974317460189523 0.402882035446168
241 1 241 2.063391470395671 5.765302764694924 4.012445072364516 0.557839239178423
242 1 242 2.202130256952958 3.930976212226491 3.596105916606686 1.328546095085019
243 1 243 11.758559464362396 6.839149368358560 11.106894974585430 0.578028992787576
244 1 244 7.978417726200920 4.803739129267622 11.234331384906692 0.177107314922170
245 1 245 4.720963069967785 12.137310953389592 12.114347441460001 0.288182286207643
246 1 246 4.800045663207608 11.556029723114781 4.688767211597729 0.952333606478456
247 1 247 6.875857164112567 7.338356886464410 4.708745995969019 0.834572133663027
248 1 248 7.673565545501378 5.006524121101267 0.150890409417688 0.357489580602128
249 1 249 4.554181609314202 11.245427275035025 10.956678466376493 1.079826874177255
250 1 250 2.070304320528389 8.608991874102713 11.081469338395953 2.566618677299628
251 1 251 6.087995357483269 10.043127652317807 1.505368828814626 0.516732490190527
252 1 252 2.523818383586477 0.551056349811347 3.352340642702719 0.294784746187128
253 1 253 11.090040877657433 10.238187968506951 7.676186797210109 1.027045660735783
254 1 254 10.816551793075520 6.272081015537172 2.170471296502530 0.353887526965509
255 1 255 4.645695498781860 11.719453564229580 1.925088220076718 0.532330848131287
256 1 256 3.133925823150153 11.414012495598762 10.044510919435963 0.620547585956880
257 1 257 1.943276743727374 5.882368101582383 10.106931040844403 0.232119441114826
258 1 258 6.577384412603047 8.795513926485999 1.783752215951907 0.852186188093360
259 1 259 4.698480234655192 0.579601358232970 11.135573176237781 0.546435713499818
260 1 260 5.639309620331900 6.408157208511196 4.297881043199119 0.716018875794669
261 1 261 10.666461427360719 4.097992580758983 6.524931699604582 0.525189311968360
262 1 262 2.049769393911074 8.374767720793272 3.489729351015038 0.421450137466387
263 1 263 1.688090362500015 2.020254785459114 9.565029863421676 0.260525242415090
264 1 264 6.938801931040558 5.205647335167712 5.760685399941610 0.277715198858513
265 1 265 7.581349213791994 6.856627467370934 7.710729053018935 0.513518014078193
266 1 266 2.363561653362024 11.835139910588738 7.115960907992521 0.333440582777836
267 1 267 5.681759416480099 6.951295253838203 12.064855783509611 0.289021999894384
268 1 268 4.538969538269497 1.283306648956972 10.196854188827105 0.389873478088067
269 1 269 0.710732323036281 0.952731325510466 4.168805626438692 0.252029454989348
270 1 270 11.398104356896336 2.554902288790219 4.600717286061246 1.887952527378410
271 1 271 1.701022598176702 6.321077864952526 0.903485003844757 0.560432074035168
272 1 272 8.139783962880911 9.183823877515163 1.479198383301227 0.787183895757470
273 1 273 6.616212282852681 3.381759886884172 6.020744601354460 0.185557485331051
274 1 274 9.519166013251461 4.405994248329822 5.918436354923822 0.791152076528100
275 1 275 6.315741003980778 1.027079177604000 9.709742184670105 0.342716523642131
276 1 276 4.368684285851603 2.174174276598124 6.799803476399598 0.244802985330791
277 1 277 4.539049516954202 10.520846049933755 7.698561724828839 2.271339272402089
278 1 278 4.687625500151611 6.840750248621833 10.470380805594386 0.651830230426381
279 1 279 5.446473263049211 10.425292866957173 3.017175406363497 1.168919556047643
280 1 280 11.454744374388959 5.606984793633001 9.697252071881653 0.175765619504263
281 1 281 1.656226574255170 3.164895120580960 6.783027631401370 0.404391241281583
282 1 282 9.726681299183326 10.430938272915322 8.291958157130763 0.481450038276706
283 1 283 4.605123291966113 3.934896975294300 5.975179733678895 1.261488524561549
284 1 284 0.234547113064324 5.837586174351952 10.604812860520635 0.771611101629812
285 1 285 7.357077349181356 10.945091875054812 8.279009357545537 0.648217522604683
286 1 286 6.023554797007221 9.968556888483148 4.931821472645166 0.894194960377982
287 1 287 2.795081715876930 8.713402889174226 8.299293397807668 0.311658700800478
288 1 288 12.139531840905438 4.451237387478323 1.234261537803016 2.082339984275449
289 1 289 6.341894958860389 0.032458680383753 7.398878183752665 0.282890252995411
290 1 290 4.891704301929742 0.864816424736435 3.747280948830359 0.899509753760070
291 1 291 11.155897023397378 9.292448749732701 2.301419961905811 0.266028178480712
292 1 292 1.518298596745837 9.951640321227641 2.827490055914807 0.350469322299175
293 1 293 2.661148725180033 1.316121092915523 5.565500876399452 2.029008768718370
294 1 294 0.331630642224515 9.055379524778182 3.396121129453927 1.240965207105305
295 1 295 11.354488797736794 6.119988094219110 10.543176469928882 0.420375218549552
296 1 296 3.173308054482205 7.596514672154417 7.933505877026812 0.921660852493135
297 1 297 8.148724555704092 4.419742334700006 2.961437013210243 0.370803190294956
298 1 298 8.949150017314865 6.957531862413337 3.772713179215900 1.040310377864167
299 1 299 5.377669764435566 4.738570763784289 2.263396115452068 0.496302686181154
300 1 300 3.892094837209179 3.675442129669446 10.784486032629854 0.881058056925720
301 1 301 4.898677023597753 2.046315209427669 2.783206787243451 0.369449717676277
302 1 302 10.714913120968472 10.920635747269051 5.847751660809299 0.965624393180577
303 1 303 11.564331105300912 2.119618883936552 2.377313313736177 0.344983382222598
304 1 304 11.928683444536762 3.681200743382727 6.692819029868341 0.558854707793708
305 1 305 3.227257390485769 1.183081525362881 8.567946032850871 1.086169028591882
306 1 306 4.954142949198790 1.514638167990914 10.871857496496244 0.434872734371142
307 1 307 11.189841608833801 8.864329290171161 12.273816112817569 0.774249569732832
308 1 308 10.820710607480983 1.896896202456930 10.172956459428335 0.560518866557779
309 1 309 7.883084934435427 7.955452476587410 11.553498801323482 0.473174285607207
310 1 310 8.162518892418866 10.672872134077846 9.659602979288309 0.974161512268317
311 1 311 0.970719394775744 10.687349275694674 2.935167668564999 0.572106688870144
312 1 312 0.397359762418724 2.340515421126999 2.728431800481437 0.354066265444373
313 1 313 6.600712903732034 8.216158257208400 2.725523316073854 0.246176483031733
314 1 314 6.486513342034060 4.533432286817182 2.631831482124927 0.689859443047565
315 1 315 8.066019912194101 6.831956880261885 7.098454626862732 0.195697554938111
316 1 316 11.062084416783145 7.440239453980739 9.943579143715704 0.906275745846002
317 1 317 3.946330877374070 1.492382668154479 10.739675132135654 0.295467224301893
318 1 318 12.159776653297891 9.742596201401399 0.576121436033146 0.444067408965987
319 1 319 0.124257790347662 11.591673981924634 0.350058646324591 1.431184831531967
320 1 320 8.917601637789213 10.394931150467905 10.787290515256972 0.410088877369051
321 1 321 11.070724999294775 2.651172644016772 6.865733785365249 0.149662723863806
322 1 322 8.417429615288357 0.767053695686618 4.924294370090557 0.654422854424295
323 1 323 10.126302611542721 10.048246078297877 3.641013567204456 1.486505658040820
324 1 324 1.280458050948262 5.546537377127971 11.483165535081765 0.625541379032848
325 1 325 11.254312087942139 0.101310714116508 5.414951783237507 0.244747319921443
326 1 326 4.769047173581719 6.829427545419841 3.653652295225023 0.446339849628537
327 1 327 6.932143629589333 0.890309804951016 9.416660299223592 0.352062672472807
328 1 328 6.362832020493682 10.473185057505892 10.376893804644565 0.979142929928869
329 1 329 6.810839131462005 3.939895481254367 4.564858299225952 1.360387231110112
330 1 330 10.695024169414731 7.738548490126851 8.556751459922511 0.518638724554870
331 1 331 0.268827292146444 5.466343349498088 4.401973251292706 1.306456915461315
332 1 332 5.376475826386844 6.737810360223201 6.712604288716290 1.744107791611598
333 1 333 11.706334565740121 8.715947026924999 8.842593508410165 0.899128859790136
334 1 334 0.046556302244508 0.853089969090387 2.419571181633785 1.037445828504266
335 1 335 6.149267653972548 2.810295189102560 6.562659590733821 0.721128656559963
336 1 336 6.830336723678870 7.521466817330484 2.965893834135868 0.507630845070921
337 1 337 3.983141964150638 4.243826132417297 3.638729902070237 0.486014744708769
338 1 338 0.241054937975457 9.234007848363481 7.537417298119204 0.725357843791559
339 1 339 2.832386672188193 4.482113217052895 5.498844479969978 0.659390834048842
340 1 340 9.091557552574697 2.993471646383295 9.555954384013488 0.228679922725326
341 1 341 3.577797349412003 7.857821298822772 3.494522920754222 1.137046611080952
342 1 342 4.412022648558182 6.619506048413138 11.872573734533383 0.632604185967715